6    
From optimize.out: Frame 1 / 1, Energy=    -170.1785506347
C       -0.3689809208   -1.4576547337   -1.3858823885
C       -0.1536196599   -0.5941379365   -0.5627748973
H        0.0498937407    0.2058682492    0.1931202396
H       -0.5557150000   -2.2230003291   -2.1042277552
C        0.4068909425    1.6172446306    1.5286738889
N        0.6215308973    2.4516801195    2.3310909123
6    
From optimize.out: Frame 1 / 3, Energy=    -170.1866749763
C       -0.2721093508   -1.0384613409   -0.9953339855
C       -0.4664498965    0.1336943554   -0.3047184063
H       -1.3026915436    0.8069996872   -0.5503883152
H        0.6404231459   -1.5232274449   -0.5526624611
C        0.3524169868    0.6272448764    0.7650856679
N        1.0484106582    0.9937498667    1.6380175002
