

Host: sophon
Host: sophon


Timers On : Mon Nov  7 13:44:28 2022
Timers On : Mon Nov  7 13:44:28 2022
Timers Off: Mon Nov  7 13:44:29 2022
Timers Off: Mon Nov  7 13:44:29 2022

Wall Time:        1.29 seconds


Wall Time:        1.29 seconds

                                                       Time (seconds)
                                                       Time (seconds)
Module                                       User      System        Wall        Calls
Module                                       User      System        Wall        Calls

--------------------------------------------------------------------------------------

--------------------------------------------------------------------------------------

**************************************************************************************

**************************************************************************************

Host: sophon

Timers On : Mon Nov  7 13:45:04 2022
Timers Off: Mon Nov  7 13:45:04 2022

Wall Time:        0.37 seconds

                                                       Time (seconds)
Module                                       User      System        Wall        Calls

--------------------------------------------------------------------------------------

**************************************************************************************

Host: sophon

Timers On : Mon Nov  7 13:45:04 2022
Timers Off: Mon Nov  7 13:45:04 2022

Wall Time:        0.37 seconds

                                                       Time (seconds)
Module                                       User      System        Wall        Calls

--------------------------------------------------------------------------------------

**************************************************************************************

Host: sophon

Timers On : Mon Nov  7 13:46:09 2022
Timers Off: Mon Nov  7 13:46:09 2022

Wall Time:        0.36 seconds

                                                       Time (seconds)
Module                                       User      System        Wall        Calls

--------------------------------------------------------------------------------------

**************************************************************************************

Host: sophon

Timers On : Mon Nov  7 13:46:09 2022
Timers Off: Mon Nov  7 13:46:10 2022

Wall Time:        0.36 seconds

                                                       Time (seconds)
Module                                       User      System        Wall        Calls

--------------------------------------------------------------------------------------

**************************************************************************************

Host: sophon

Timers On : Mon Nov  7 13:48:16 2022
Timers Off: Mon Nov  7 13:48:17 2022

Wall Time:        0.36 seconds

                                                       Time (seconds)
Module                                       User      System        Wall        Calls

--------------------------------------------------------------------------------------

**************************************************************************************

Host: sophon

Timers On : Mon Nov  7 13:48:16 2022
Timers Off: Mon Nov  7 13:48:17 2022

Wall Time:        0.37 seconds

                                                       Time (seconds)
Module                                       User      System        Wall        Calls

--------------------------------------------------------------------------------------

**************************************************************************************

Host: sophon

Timers On : Mon Nov  7 13:49:58 2022
Timers Off: Mon Nov  7 13:49:58 2022

Wall Time:        0.36 seconds

                                                       Time (seconds)
Module                                       User      System        Wall        Calls

--------------------------------------------------------------------------------------

**************************************************************************************

Host: sophon

Timers On : Mon Nov  7 13:49:58 2022
Timers Off: Mon Nov  7 13:49:58 2022

Wall Time:        0.36 seconds

                                                       Time (seconds)
Module                                       User      System        Wall        Calls

--------------------------------------------------------------------------------------

**************************************************************************************

Host: sophon

Timers On : Mon Nov  7 13:50:24 2022
Timers Off: Mon Nov  7 13:50:24 2022

Wall Time:        0.36 seconds

                                                       Time (seconds)
Module                                       User      System        Wall        Calls

--------------------------------------------------------------------------------------

**************************************************************************************

Host: sophon

Timers On : Mon Nov  7 13:50:24 2022
Timers Off: Mon Nov  7 13:50:24 2022

Wall Time:        0.36 seconds

                                                       Time (seconds)
Module                                       User      System        Wall        Calls

--------------------------------------------------------------------------------------

**************************************************************************************

Host: sophon

Timers On : Mon Nov  7 13:50:46 2022
Timers Off: Mon Nov  7 13:50:47 2022

Wall Time:        0.56 seconds

                                                       Time (seconds)
Module                                       User      System        Wall        Calls

--------------------------------------------------------------------------------------

**************************************************************************************

Host: sophon

Timers On : Mon Nov  7 13:50:46 2022
Timers Off: Mon Nov  7 13:50:47 2022

Wall Time:        0.56 seconds

                                                       Time (seconds)
Module                                       User      System        Wall        Calls

--------------------------------------------------------------------------------------

**************************************************************************************

Host: sophon

Timers On : Mon Nov  7 13:50:46 2022
Timers Off: Mon Nov  7 13:50:47 2022

Wall Time:        0.58 seconds

                                                       Time (seconds)
Module                                       User      System        Wall        Calls

--------------------------------------------------------------------------------------

**************************************************************************************

Host: sophon

Timers On : Mon Nov  7 13:50:46 2022
Timers Off: Mon Nov  7 13:50:47 2022

Wall Time:        0.58 seconds

                                                       Time (seconds)
Module                                       User      System        Wall        Calls

--------------------------------------------------------------------------------------

**************************************************************************************

Host: sophon

Timers On : Mon Nov  7 13:50:46 2022
Timers Off: Mon Nov  7 13:50:47 2022

Wall Time:        0.58 seconds

                                                       Time (seconds)
Module                                       User      System        Wall        Calls

--------------------------------------------------------------------------------------

**************************************************************************************

Host: sophon

Timers On : Mon Nov  7 13:50:46 2022
Timers Off: Mon Nov  7 13:50:47 2022

Wall Time:        0.59 seconds

                                                       Time (seconds)
Module                                       User      System        Wall        Calls

--------------------------------------------------------------------------------------

**************************************************************************************

Host: sophon

Timers On : Mon Nov  7 13:50:46 2022
Timers Off: Mon Nov  7 13:50:47 2022

Wall Time:        0.59 seconds

                                                       Time (seconds)
Module                                       User      System        Wall        Calls

--------------------------------------------------------------------------------------

**************************************************************************************

Host: sophon

Timers On : Mon Nov  7 13:50:46 2022
Timers Off: Mon Nov  7 13:50:47 2022

Wall Time:        0.59 seconds

                                                       Time (seconds)
Module                                       User      System        Wall        Calls

--------------------------------------------------------------------------------------

**************************************************************************************

Host: sophon

Timers On : Mon Nov  7 13:50:46 2022
Timers Off: Mon Nov  7 13:50:47 2022

Wall Time:        0.60 seconds

                                                       Time (seconds)
Module                                       User      System        Wall        Calls

--------------------------------------------------------------------------------------

**************************************************************************************

Host: sophon

Timers On : Mon Nov  7 13:50:46 2022
Timers Off: Mon Nov  7 13:50:47 2022

Wall Time:        0.62 seconds

                                                       Time (seconds)
Module                                       User      System        Wall        Calls

--------------------------------------------------------------------------------------

**************************************************************************************


Host: sophon
Host: sophon


Timers On : Mon Nov  7 15:09:20 2022
Timers On : Mon Nov  7 15:09:20 2022
Timers Off: Mon Nov  7 15:09:20 2022
Timers Off: Mon Nov  7 15:09:20 2022

Wall Time:        0.36 seconds


Wall Time:        0.36 seconds

                                                       Time (seconds)
                                                       Time (seconds)
Module                                       User      System        Wall        Calls
Module                                       User      System        Wall        Calls

--------------------------------------------------------------------------------------

--------------------------------------------------------------------------------------

**************************************************************************************

**************************************************************************************


Host: sophon

Timers On : Mon Nov  7 15:09:42 2022
Timers Off: Mon Nov  7 15:09:43 2022

Wall Time:        0.57 seconds

                                                       Time (seconds)
Module                                       User      System        Wall        Calls

--------------------------------------------------------------------------------------

**************************************************************************************
Host: sophon

Timers On : Mon Nov  7 15:09:42 2022
Timers Off: Mon Nov  7 15:09:43 2022

Wall Time:        0.58 seconds

                                                       Time (seconds)
Module                                       User      System        Wall        Calls

--------------------------------------------------------------------------------------

**************************************************************************************

Host: sophon

Timers On : Mon Nov  7 15:09:42 2022
Timers Off: Mon Nov  7 15:09:43 2022

Wall Time:        0.58 seconds

                                                       Time (seconds)
Module                                       User      System        Wall        Calls

--------------------------------------------------------------------------------------

**************************************************************************************

Host: sophon

Timers On : Mon Nov  7 15:09:42 2022
Timers Off: Mon Nov  7 15:09:43 2022

Wall Time:        0.58 seconds

                                                       Time (seconds)
Module                                       User      System        Wall        Calls

--------------------------------------------------------------------------------------

**************************************************************************************

Host: sophon

Timers On : Mon Nov  7 15:09:42 2022
Timers Off: Mon Nov  7 15:09:43 2022

Wall Time:        0.58 seconds

                                                       Time (seconds)
Module                                       User      System        Wall        Calls

--------------------------------------------------------------------------------------

**************************************************************************************

Host: sophon

Timers On : Mon Nov  7 15:09:42 2022
Timers Off: Mon Nov  7 15:09:43 2022

Wall Time:        0.59 seconds

                                                       Time (seconds)
Module                                       User      System        Wall        Calls

--------------------------------------------------------------------------------------

**************************************************************************************

Host: sophon

Timers On : Mon Nov  7 15:09:42 2022
Timers Off: Mon Nov  7 15:09:43 2022

Wall Time:        0.59 seconds

                                                       Time (seconds)
Module                                       User      System        Wall        Calls

--------------------------------------------------------------------------------------

**************************************************************************************

Host: sophon

Timers On : Mon Nov  7 15:09:42 2022
Timers Off: Mon Nov  7 15:09:43 2022

Wall Time:        0.59 seconds

                                                       Time (seconds)
Module                                       User      System        Wall        Calls

--------------------------------------------------------------------------------------

**************************************************************************************

Host: sophon

Timers On : Mon Nov  7 15:09:42 2022
Timers Off: Mon Nov  7 15:09:43 2022

Wall Time:        0.60 seconds

                                                       Time (seconds)
Module                                       User      System        Wall        Calls

--------------------------------------------------------------------------------------

**************************************************************************************

Host: sophon

Timers On : Mon Nov  7 15:09:42 2022
Timers Off: Mon Nov  7 15:09:43 2022

Wall Time:        0.60 seconds

                                                       Time (seconds)
Module                                       User      System        Wall        Calls

--------------------------------------------------------------------------------------

**************************************************************************************


Host: sophon
Host: sophon


Timers On : Mon Nov  7 15:30:32 2022
Timers On : Mon Nov  7 15:30:32 2022
Timers Off: Mon Nov  7 15:30:33 2022
Timers Off: Mon Nov  7 15:30:33 2022

Wall Time:        0.36 seconds


Wall Time:        0.36 seconds

                                                       Time (seconds)
                                                       Time (seconds)
Module                                       User      System        Wall        Calls
Module                                       User      System        Wall        Calls

--------------------------------------------------------------------------------------

--------------------------------------------------------------------------------------

**************************************************************************************

**************************************************************************************

Host: sophon

Timers On : Mon Nov  7 15:30:55 2022
Timers Off: Mon Nov  7 15:30:55 2022

Wall Time:        0.55 seconds

                                                       Time (seconds)
Module                                       User      System        Wall        Calls

--------------------------------------------------------------------------------------

**************************************************************************************


Host: sophon
Host: sophon


Timers On : Mon Nov  7 15:30:55 2022
Timers On : Mon Nov  7 15:30:55 2022
Timers Off: Mon Nov  7 15:30:55 2022
Timers Off: Mon Nov  7 15:30:55 2022

Wall Time:        0.58 seconds


Wall Time:        0.58 seconds

                                                       Time (seconds)
                                                       Time (seconds)
Module                                       User      System        Wall        Calls
Module                                       User      System        Wall        Calls

--------------------------------------------------------------------------------------

--------------------------------------------------------------------------------------

**************************************************************************************

**************************************************************************************

Host: sophon

Timers On : Mon Nov  7 15:30:55 2022
Timers Off: Mon Nov  7 15:30:55 2022

Wall Time:        0.58 seconds

                                                       Time (seconds)
Module                                       User      System        Wall        Calls

--------------------------------------------------------------------------------------

**************************************************************************************

Host: sophon

Timers On : Mon Nov  7 15:30:55 2022
Timers Off: Mon Nov  7 15:30:55 2022

Wall Time:        0.58 seconds

                                                       Time (seconds)
Module                                       User      System        Wall        Calls

--------------------------------------------------------------------------------------

**************************************************************************************

Host: sophon

Timers On : Mon Nov  7 15:30:55 2022
Timers Off: Mon Nov  7 15:30:55 2022

Wall Time:        0.59 seconds

                                                       Time (seconds)
Module                                       User      System        Wall        Calls

--------------------------------------------------------------------------------------

**************************************************************************************

Host: sophon

Timers On : Mon Nov  7 15:30:55 2022
Timers Off: Mon Nov  7 15:30:55 2022

Wall Time:        0.59 seconds

                                                       Time (seconds)
Module                                       User      System        Wall        Calls

--------------------------------------------------------------------------------------

**************************************************************************************

Host: sophon

Timers On : Mon Nov  7 15:30:55 2022
Timers Off: Mon Nov  7 15:30:55 2022

Wall Time:        0.59 seconds

                                                       Time (seconds)
Module                                       User      System        Wall        Calls

--------------------------------------------------------------------------------------

**************************************************************************************

Host: sophon

Timers On : Mon Nov  7 15:30:55 2022
Timers Off: Mon Nov  7 15:30:55 2022

Wall Time:        0.59 seconds

                                                       Time (seconds)
Module                                       User      System        Wall        Calls

--------------------------------------------------------------------------------------

**************************************************************************************

Host: sophon

Timers On : Mon Nov  7 15:30:55 2022
Timers Off: Mon Nov  7 15:30:55 2022

Wall Time:        0.59 seconds

                                                       Time (seconds)
Module                                       User      System        Wall        Calls

--------------------------------------------------------------------------------------

**************************************************************************************

Host: sophon

Timers On : Mon Nov  7 15:51:52 2022
Timers Off: Mon Nov  7 15:51:52 2022

Wall Time:        0.36 seconds

                                                       Time (seconds)
Module                                       User      System        Wall        Calls

--------------------------------------------------------------------------------------

**************************************************************************************

Host: sophon

Timers On : Mon Nov  7 15:51:52 2022
Timers Off: Mon Nov  7 15:51:52 2022

Wall Time:        0.36 seconds

                                                       Time (seconds)
Module                                       User      System        Wall        Calls

--------------------------------------------------------------------------------------

**************************************************************************************

Host: sophon

Timers On : Mon Nov  7 15:52:15 2022
Timers Off: Mon Nov  7 15:52:15 2022

Wall Time:        0.39 seconds

                                                       Time (seconds)
Module                                       User      System        Wall        Calls

--------------------------------------------------------------------------------------

**************************************************************************************

Host: sophon

Timers On : Mon Nov  7 15:52:15 2022
Timers Off: Mon Nov  7 15:52:15 2022

Wall Time:        0.58 seconds

                                                       Time (seconds)
Module                                       User      System        Wall        Calls

--------------------------------------------------------------------------------------

**************************************************************************************

Host: sophon

Timers On : Mon Nov  7 15:52:15 2022
Timers Off: Mon Nov  7 15:52:15 2022

Wall Time:        0.61 seconds

                                                       Time (seconds)
Module                                       User      System        Wall        Calls

--------------------------------------------------------------------------------------

**************************************************************************************

Host: sophon

Timers On : Mon Nov  7 15:52:15 2022
Timers Off: Mon Nov  7 15:52:15 2022

Wall Time:        0.58 seconds

                                                       Time (seconds)
Module                                       User      System        Wall        Calls

--------------------------------------------------------------------------------------

**************************************************************************************

Host: sophon

Timers On : Mon Nov  7 15:52:15 2022
Timers Off: Mon Nov  7 15:52:15 2022

Wall Time:        0.58 seconds

                                                       Time (seconds)
Module                                       User      System        Wall        Calls

--------------------------------------------------------------------------------------

**************************************************************************************

Host: sophon

Timers On : Mon Nov  7 15:52:15 2022
Timers Off: Mon Nov  7 15:52:15 2022

Wall Time:        0.59 seconds

                                                       Time (seconds)
Module                                       User      System        Wall        Calls

--------------------------------------------------------------------------------------

**************************************************************************************

Host: sophon

Timers On : Mon Nov  7 15:52:15 2022
Timers Off: Mon Nov  7 15:52:15 2022

Wall Time:        0.59 seconds

                                                       Time (seconds)
Module                                       User      System        Wall        Calls

--------------------------------------------------------------------------------------

**************************************************************************************

Host: sophon

Timers On : Mon Nov  7 15:52:15 2022
Timers Off: Mon Nov  7 15:52:15 2022

Wall Time:        0.59 seconds

                                                       Time (seconds)
Module                                       User      System        Wall        Calls

--------------------------------------------------------------------------------------

**************************************************************************************

Host: sophon

Timers On : Mon Nov  7 15:52:15 2022
Timers Off: Mon Nov  7 15:52:15 2022

Wall Time:        0.58 seconds

                                                       Time (seconds)
Module                                       User      System        Wall        Calls

--------------------------------------------------------------------------------------

**************************************************************************************

Host: sophon

Timers On : Mon Nov  7 15:52:15 2022
Timers Off: Mon Nov  7 15:52:15 2022

Wall Time:        0.60 seconds

                                                       Time (seconds)
Module                                       User      System        Wall        Calls

--------------------------------------------------------------------------------------

**************************************************************************************

Host: sophon

Timers On : Mon Nov  7 16:08:33 2022
Timers Off: Mon Nov  7 16:08:33 2022

Wall Time:        0.36 seconds

                                                       Time (seconds)
Module                                       User      System        Wall        Calls

--------------------------------------------------------------------------------------

**************************************************************************************

Host: sophon

Timers On : Mon Nov  7 16:08:33 2022
Timers Off: Mon Nov  7 16:08:33 2022

Wall Time:        0.36 seconds

                                                       Time (seconds)
Module                                       User      System        Wall        Calls

--------------------------------------------------------------------------------------

**************************************************************************************

Host: sophon

Timers On : Mon Nov  7 16:08:55 2022
Timers Off: Mon Nov  7 16:08:55 2022

Wall Time:        0.36 seconds

                                                       Time (seconds)
Module                                       User      System        Wall        Calls

--------------------------------------------------------------------------------------

**************************************************************************************

Host: sophon

Timers On : Mon Nov  7 16:08:55 2022
Timers Off: Mon Nov  7 16:08:55 2022

Wall Time:        0.36 seconds

                                                       Time (seconds)
Module                                       User      System        Wall        Calls

--------------------------------------------------------------------------------------

**************************************************************************************

Host: sophon

Timers On : Mon Nov  7 16:09:18 2022
Timers Off: Mon Nov  7 16:09:18 2022

Wall Time:        0.43 seconds

                                                       Time (seconds)
Module                                       User      System        Wall        Calls

--------------------------------------------------------------------------------------

**************************************************************************************

Host: sophon

Timers On : Mon Nov  7 16:09:18 2022
Timers Off: Mon Nov  7 16:09:18 2022

Wall Time:        0.56 seconds

                                                       Time (seconds)
Module                                       User      System        Wall        Calls

--------------------------------------------------------------------------------------

**************************************************************************************

Host: sophon

Timers On : Mon Nov  7 16:09:18 2022
Timers Off: Mon Nov  7 16:09:18 2022

Wall Time:        0.56 seconds

                                                       Time (seconds)
Module                                       User      System        Wall        Calls

--------------------------------------------------------------------------------------

**************************************************************************************

Host: sophon

Timers On : Mon Nov  7 16:09:18 2022
Timers Off: Mon Nov  7 16:09:18 2022

Wall Time:        0.57 seconds

                                                       Time (seconds)
Module                                       User      System        Wall        Calls

--------------------------------------------------------------------------------------

**************************************************************************************

Host: sophon

Timers On : Mon Nov  7 16:09:18 2022
Timers Off: Mon Nov  7 16:09:18 2022

Wall Time:        0.60 seconds

                                                       Time (seconds)
Module                                       User      System        Wall        Calls

--------------------------------------------------------------------------------------

**************************************************************************************

Host: sophon

Timers On : Mon Nov  7 16:09:18 2022
Timers Off: Mon Nov  7 16:09:18 2022

Wall Time:        0.57 seconds

                                                       Time (seconds)
Module                                       User      System        Wall        Calls

--------------------------------------------------------------------------------------

**************************************************************************************

Host: sophon

Timers On : Mon Nov  7 16:09:18 2022
Timers Off: Mon Nov  7 16:09:18 2022

Wall Time:        0.59 seconds

                                                       Time (seconds)
Module                                       User      System        Wall        Calls

--------------------------------------------------------------------------------------

**************************************************************************************

Host: sophon

Timers On : Mon Nov  7 16:09:18 2022
Timers Off: Mon Nov  7 16:09:18 2022

Wall Time:        0.59 seconds

                                                       Time (seconds)
Module                                       User      System        Wall        Calls

--------------------------------------------------------------------------------------

**************************************************************************************

Host: sophon

Timers On : Mon Nov  7 16:09:18 2022
Timers Off: Mon Nov  7 16:09:18 2022

Wall Time:        0.60 seconds

                                                       Time (seconds)
Module                                       User      System        Wall        Calls

--------------------------------------------------------------------------------------

**************************************************************************************

Host: sophon

Timers On : Mon Nov  7 16:09:18 2022
Timers Off: Mon Nov  7 16:09:18 2022

Wall Time:        0.60 seconds

                                                       Time (seconds)
Module                                       User      System        Wall        Calls

--------------------------------------------------------------------------------------

**************************************************************************************

Host: sophon

Timers On : Mon Nov  7 16:24:57 2022
Timers Off: Mon Nov  7 16:24:57 2022

Wall Time:        0.37 seconds

                                                       Time (seconds)
Module                                       User      System        Wall        Calls

--------------------------------------------------------------------------------------

**************************************************************************************

Host: sophon

Timers On : Mon Nov  7 16:24:57 2022
Timers Off: Mon Nov  7 16:24:57 2022

Wall Time:        0.37 seconds

                                                       Time (seconds)
Module                                       User      System        Wall        Calls

--------------------------------------------------------------------------------------

**************************************************************************************

Host: sophon

Timers On : Mon Nov  7 16:25:44 2022
Timers Off: Mon Nov  7 16:25:44 2022

Wall Time:        0.36 seconds

                                                       Time (seconds)
Module                                       User      System        Wall        Calls

--------------------------------------------------------------------------------------

**************************************************************************************

Host: sophon

Timers On : Mon Nov  7 16:25:44 2022
Timers Off: Mon Nov  7 16:25:44 2022

Wall Time:        0.37 seconds

                                                       Time (seconds)
Module                                       User      System        Wall        Calls

--------------------------------------------------------------------------------------

**************************************************************************************

Host: sophon

Timers On : Mon Nov  7 16:26:06 2022
Timers Off: Mon Nov  7 16:26:06 2022

Wall Time:        0.35 seconds

                                                       Time (seconds)
Module                                       User      System        Wall        Calls

--------------------------------------------------------------------------------------

**************************************************************************************

Host: sophon

Timers On : Mon Nov  7 16:26:06 2022
Timers Off: Mon Nov  7 16:26:06 2022

Wall Time:        0.35 seconds

                                                       Time (seconds)
Module                                       User      System        Wall        Calls

--------------------------------------------------------------------------------------

**************************************************************************************

Host: sophon

Timers On : Mon Nov  7 16:26:29 2022
Timers Off: Mon Nov  7 16:26:29 2022

Wall Time:        0.56 seconds

                                                       Time (seconds)
Module                                       User      System        Wall        Calls

--------------------------------------------------------------------------------------

**************************************************************************************

Host: sophon

Timers On : Mon Nov  7 16:26:29 2022
Timers Off: Mon Nov  7 16:26:29 2022

Wall Time:        0.58 seconds

                                                       Time (seconds)
Module                                       User      System        Wall        Calls

--------------------------------------------------------------------------------------

**************************************************************************************

Host: sophon

Timers On : Mon Nov  7 16:26:29 2022
Timers Off: Mon Nov  7 16:26:29 2022

Wall Time:        0.58 seconds

                                                       Time (seconds)
Module                                       User      System        Wall        Calls

--------------------------------------------------------------------------------------

**************************************************************************************


Host: sophon
Host: sophon


Timers On : Mon Nov  7 16:26:29 2022
Timers On : Mon Nov  7 16:26:29 2022
Timers Off: Mon Nov  7 16:26:29 2022
Timers Off: Mon Nov  7 16:26:29 2022

Wall Time:        0.58 seconds


Wall Time:        0.58 seconds

                                                       Time (seconds)
                                                       Time (seconds)
Module                                       User      System        Wall        Calls
Module                                       User      System        Wall        Calls

--------------------------------------------------------------------------------------

--------------------------------------------------------------------------------------

**************************************************************************************

**************************************************************************************

Host: sophon

Timers On : Mon Nov  7 16:26:29 2022
Timers Off: Mon Nov  7 16:26:29 2022

Wall Time:        0.59 seconds

                                                       Time (seconds)
Module                                       User      System        Wall        Calls

--------------------------------------------------------------------------------------

**************************************************************************************

Host: sophon

Timers On : Mon Nov  7 16:26:29 2022
Timers Off: Mon Nov  7 16:26:29 2022

Wall Time:        0.60 seconds

                                                       Time (seconds)
Module                                       User      System        Wall        Calls

--------------------------------------------------------------------------------------

**************************************************************************************

Host: sophon

Timers On : Mon Nov  7 16:26:29 2022
Timers Off: Mon Nov  7 16:26:29 2022

Wall Time:        0.59 seconds

                                                       Time (seconds)
Module                                       User      System        Wall        Calls

--------------------------------------------------------------------------------------

**************************************************************************************

Host: sophon

Timers On : Mon Nov  7 16:26:29 2022
Timers Off: Mon Nov  7 16:26:29 2022

Wall Time:        0.60 seconds

                                                       Time (seconds)
Module                                       User      System        Wall        Calls

--------------------------------------------------------------------------------------

**************************************************************************************

Host: sophon

Timers On : Mon Nov  7 16:26:29 2022
Timers Off: Mon Nov  7 16:26:29 2022

Wall Time:        0.59 seconds

                                                       Time (seconds)
Module                                       User      System        Wall        Calls

--------------------------------------------------------------------------------------

**************************************************************************************

Host: sophon

Timers On : Mon Nov  7 16:42:35 2022
Timers Off: Mon Nov  7 16:42:36 2022

Wall Time:        0.36 seconds

                                                       Time (seconds)
Module                                       User      System        Wall        Calls

--------------------------------------------------------------------------------------

**************************************************************************************

Host: sophon

Timers On : Mon Nov  7 16:42:35 2022
Timers Off: Mon Nov  7 16:42:36 2022

Wall Time:        0.36 seconds

                                                       Time (seconds)
Module                                       User      System        Wall        Calls

--------------------------------------------------------------------------------------

**************************************************************************************

Host: sophon

Timers On : Mon Nov  7 16:42:53 2022
Timers Off: Mon Nov  7 16:42:53 2022

Wall Time:        0.35 seconds

                                                       Time (seconds)
Module                                       User      System        Wall        Calls

--------------------------------------------------------------------------------------

**************************************************************************************

Host: sophon

Timers On : Mon Nov  7 16:42:53 2022
Timers Off: Mon Nov  7 16:42:53 2022

Wall Time:        0.35 seconds

                                                       Time (seconds)
Module                                       User      System        Wall        Calls

--------------------------------------------------------------------------------------

**************************************************************************************

Host: sophon

Timers On : Mon Nov  7 16:43:15 2022
Timers Off: Mon Nov  7 16:43:16 2022

Wall Time:        0.57 seconds

                                                       Time (seconds)
Module                                       User      System        Wall        Calls

--------------------------------------------------------------------------------------

**************************************************************************************


Host: sophon
Host: sophon


Timers On : Mon Nov  7 16:43:15 2022
Timers On : Mon Nov  7 16:43:15 2022
Timers Off: Mon Nov  7 16:43:16 2022
Timers Off: Mon Nov  7 16:43:16 2022

Wall Time:        0.58 seconds


Wall Time:        0.58 seconds

                                                       Time (seconds)
                                                       Time (seconds)
Module                                       User      System        Wall        Calls
Module                                       User      System        Wall        Calls

--------------------------------------------------------------------------------------

--------------------------------------------------------------------------------------

**************************************************************************************

**************************************************************************************

Host: sophon


Host: sophon

Timers On : Mon Nov  7 16:43:15 2022
Timers On : Mon Nov  7 16:43:15 2022
Timers Off: Mon Nov  7 16:43:16 2022
Timers Off: Mon Nov  7 16:43:16 2022

Wall Time:        0.58 seconds


Wall Time:        0.58 seconds

                                                       Time (seconds)
                                                       Time (seconds)
Module                                       User      System        Wall        Calls
Module                                       User      System        Wall        Calls

--------------------------------------------------------------------------------------

--------------------------------------------------------------------------------------

**************************************************************************************

**************************************************************************************

Host: sophon

Timers On : Mon Nov  7 16:43:15 2022
Timers Off: Mon Nov  7 16:43:16 2022

Wall Time:        0.58 seconds

                                                       Time (seconds)
Module                                       User      System        Wall        Calls

--------------------------------------------------------------------------------------

**************************************************************************************

Host: sophon

Timers On : Mon Nov  7 16:43:15 2022
Timers Off: Mon Nov  7 16:43:16 2022

Wall Time:        0.58 seconds

                                                       Time (seconds)
Module                                       User      System        Wall        Calls

--------------------------------------------------------------------------------------

**************************************************************************************

Host: sophon

Timers On : Mon Nov  7 16:43:15 2022
Timers Off: Mon Nov  7 16:43:16 2022

Wall Time:        0.59 seconds

                                                       Time (seconds)
Module                                       User      System        Wall        Calls

--------------------------------------------------------------------------------------

**************************************************************************************

Host: sophon

Timers On : Mon Nov  7 16:43:15 2022
Timers Off: Mon Nov  7 16:43:16 2022

Wall Time:        0.60 seconds

                                                       Time (seconds)
Module                                       User      System        Wall        Calls

--------------------------------------------------------------------------------------

**************************************************************************************

Host: sophon

Timers On : Mon Nov  7 16:43:15 2022
Timers Off: Mon Nov  7 16:43:16 2022

Wall Time:        0.59 seconds

                                                       Time (seconds)
Module                                       User      System        Wall        Calls

--------------------------------------------------------------------------------------

**************************************************************************************

Host: sophon

Timers On : Mon Nov  7 16:52:09 2022
Timers Off: Mon Nov  7 16:52:09 2022

Wall Time:        0.36 seconds

                                                       Time (seconds)
Module                                       User      System        Wall        Calls

--------------------------------------------------------------------------------------

**************************************************************************************

Host: sophon

Timers On : Mon Nov  7 16:52:09 2022
Timers Off: Mon Nov  7 16:52:09 2022

Wall Time:        0.37 seconds

                                                       Time (seconds)
Module                                       User      System        Wall        Calls

--------------------------------------------------------------------------------------

**************************************************************************************

Host: sophon

Timers On : Mon Nov  7 16:55:15 2022
Timers Off: Mon Nov  7 16:55:15 2022

Wall Time:        0.35 seconds

                                                       Time (seconds)
Module                                       User      System        Wall        Calls

--------------------------------------------------------------------------------------

**************************************************************************************

Host: sophon

Timers On : Mon Nov  7 16:55:15 2022
Timers Off: Mon Nov  7 16:55:15 2022

Wall Time:        0.35 seconds

                                                       Time (seconds)
Module                                       User      System        Wall        Calls

--------------------------------------------------------------------------------------

**************************************************************************************


Host: sophon

Timers On : Mon Nov  7 16:55:37 2022
Timers Off: Mon Nov  7 16:55:38 2022

Wall Time:        0.56 seconds

                                                       Time (seconds)
Module                                       User      System        Wall        Calls

--------------------------------------------------------------------------------------

**************************************************************************************
Host: sophon

Timers On : Mon Nov  7 16:55:37 2022
Timers Off: Mon Nov  7 16:55:38 2022

Wall Time:        0.56 seconds

                                                       Time (seconds)
Module                                       User      System        Wall        Calls

--------------------------------------------------------------------------------------

**************************************************************************************

Host: sophon

Timers On : Mon Nov  7 16:55:37 2022
Timers Off: Mon Nov  7 16:55:38 2022

Wall Time:        0.59 seconds

                                                       Time (seconds)
Module                                       User      System        Wall        Calls

--------------------------------------------------------------------------------------

**************************************************************************************

Host: sophon

Timers On : Mon Nov  7 16:55:37 2022
Timers Off: Mon Nov  7 16:55:38 2022

Wall Time:        0.59 seconds

                                                       Time (seconds)
Module                                       User      System        Wall        Calls

--------------------------------------------------------------------------------------

**************************************************************************************

Host: sophon

Timers On : Mon Nov  7 16:55:37 2022
Timers Off: Mon Nov  7 16:55:38 2022

Wall Time:        0.59 seconds

                                                       Time (seconds)
Module                                       User      System        Wall        Calls

--------------------------------------------------------------------------------------

**************************************************************************************

Host: sophon

Timers On : Mon Nov  7 16:55:37 2022
Timers Off: Mon Nov  7 16:55:38 2022

Wall Time:        0.60 seconds

                                                       Time (seconds)
Module                                       User      System        Wall        Calls

--------------------------------------------------------------------------------------

**************************************************************************************

Host: sophon

Timers On : Mon Nov  7 16:55:37 2022
Timers Off: Mon Nov  7 16:55:38 2022

Wall Time:        0.60 seconds

                                                       Time (seconds)
Module                                       User      System        Wall        Calls

--------------------------------------------------------------------------------------

**************************************************************************************

Host: sophon

Timers On : Mon Nov  7 16:55:37 2022
Timers Off: Mon Nov  7 16:55:38 2022

Wall Time:        0.60 seconds

                                                       Time (seconds)
Module                                       User      System        Wall        Calls

--------------------------------------------------------------------------------------

**************************************************************************************

Host: sophon

Timers On : Mon Nov  7 16:55:37 2022
Timers Off: Mon Nov  7 16:55:38 2022

Wall Time:        0.60 seconds

                                                       Time (seconds)
Module                                       User      System        Wall        Calls

--------------------------------------------------------------------------------------

**************************************************************************************

Host: sophon

Timers On : Mon Nov  7 16:55:37 2022
Timers Off: Mon Nov  7 16:55:38 2022

Wall Time:        0.61 seconds

                                                       Time (seconds)
Module                                       User      System        Wall        Calls

--------------------------------------------------------------------------------------

**************************************************************************************

Host: sophon

Timers On : Mon Nov  7 16:57:01 2022
Timers Off: Mon Nov  7 16:57:01 2022

Wall Time:        0.36 seconds

                                                       Time (seconds)
Module                                       User      System        Wall        Calls

--------------------------------------------------------------------------------------

**************************************************************************************

Host: sophon

Timers On : Mon Nov  7 16:57:01 2022
Timers Off: Mon Nov  7 16:57:01 2022

Wall Time:        0.37 seconds

                                                       Time (seconds)
Module                                       User      System        Wall        Calls

--------------------------------------------------------------------------------------

**************************************************************************************

Host: sophon

Timers On : Mon Nov  7 16:57:23 2022
Timers Off: Mon Nov  7 16:57:24 2022

Wall Time:        0.56 seconds

                                                       Time (seconds)
Module                                       User      System        Wall        Calls

--------------------------------------------------------------------------------------

**************************************************************************************


Host: sophon
Host: sophon


Timers On : Mon Nov  7 16:57:23 2022
Timers On : Mon Nov  7 16:57:23 2022
Timers Off: Mon Nov  7 16:57:24 2022
Timers Off: Mon Nov  7 16:57:24 2022

Wall Time:        0.58 seconds


Wall Time:        0.58 seconds

                                                       Time (seconds)
Module                                       User      System        Wall        Calls
                                                       Time (seconds)

--------------------------------------------------------------------------------------
Module                                       User      System        Wall        Calls

**************************************************************************************

--------------------------------------------------------------------------------------

**************************************************************************************


Host: sophon
Host: sophon


Timers On : Mon Nov  7 16:57:23 2022
Timers On : Mon Nov  7 16:57:23 2022
Timers Off: Mon Nov  7 16:57:24 2022
Timers Off: Mon Nov  7 16:57:24 2022

Wall Time:        0.58 seconds


Wall Time:        0.58 seconds

                                                       Time (seconds)
                                                       Time (seconds)
Module                                       User      System        Wall        Calls
Module                                       User      System        Wall        Calls

--------------------------------------------------------------------------------------

--------------------------------------------------------------------------------------

**************************************************************************************

**************************************************************************************

Host: sophon

Timers On : Mon Nov  7 16:57:23 2022
Timers Off: Mon Nov  7 16:57:24 2022

Wall Time:        0.58 seconds

                                                       Time (seconds)
Module                                       User      System        Wall        Calls

--------------------------------------------------------------------------------------

**************************************************************************************

Host: sophon

Timers On : Mon Nov  7 16:57:23 2022
Timers Off: Mon Nov  7 16:57:24 2022

Wall Time:        0.59 seconds

                                                       Time (seconds)
Module                                       User      System        Wall        Calls

--------------------------------------------------------------------------------------

**************************************************************************************

Host: sophon

Timers On : Mon Nov  7 16:57:23 2022
Timers Off: Mon Nov  7 16:57:24 2022

Wall Time:        0.59 seconds

                                                       Time (seconds)
Module                                       User      System        Wall        Calls

--------------------------------------------------------------------------------------

**************************************************************************************

Host: sophon

Timers On : Mon Nov  7 16:57:23 2022
Timers Off: Mon Nov  7 16:57:24 2022

Wall Time:        0.59 seconds

                                                       Time (seconds)
Module                                       User      System        Wall        Calls

--------------------------------------------------------------------------------------

**************************************************************************************

Host: sophon

Timers On : Mon Nov  7 16:57:23 2022
Timers Off: Mon Nov  7 16:57:24 2022

Wall Time:        0.59 seconds

                                                       Time (seconds)
Module                                       User      System        Wall        Calls

--------------------------------------------------------------------------------------

**************************************************************************************

Host: sophon

Timers On : Mon Nov  7 17:01:34 2022
Timers Off: Mon Nov  7 17:01:35 2022

Wall Time:        0.35 seconds

                                                       Time (seconds)
Module                                       User      System        Wall        Calls

--------------------------------------------------------------------------------------

**************************************************************************************

Host: sophon

Timers On : Mon Nov  7 17:01:34 2022
Timers Off: Mon Nov  7 17:01:35 2022

Wall Time:        0.36 seconds

                                                       Time (seconds)
Module                                       User      System        Wall        Calls

--------------------------------------------------------------------------------------

**************************************************************************************

Host: sophon

Timers On : Mon Nov  7 17:01:57 2022
Timers Off: Mon Nov  7 17:01:58 2022

Wall Time:        0.57 seconds

                                                       Time (seconds)
Module                                       User      System        Wall        Calls

--------------------------------------------------------------------------------------

**************************************************************************************


Host: sophon
Host: sophon


Timers On : Mon Nov  7 17:01:57 2022
Timers On : Mon Nov  7 17:01:57 2022
Timers Off: Mon Nov  7 17:01:58 2022
Timers Off: Mon Nov  7 17:01:58 2022

Wall Time:        0.58 seconds


Wall Time:        0.58 seconds

                                                       Time (seconds)
                                                       Time (seconds)
Module                                       User      System        Wall        Calls
Module                                       User      System        Wall        Calls

--------------------------------------------------------------------------------------

--------------------------------------------------------------------------------------

**************************************************************************************

**************************************************************************************

Host: sophon

Timers On : Mon Nov  7 17:01:57 2022
Timers Off: Mon Nov  7 17:01:58 2022

Wall Time:        0.58 seconds

                                                       Time (seconds)
Module                                       User      System        Wall        Calls

--------------------------------------------------------------------------------------

**************************************************************************************

Host: sophon

Timers On : Mon Nov  7 17:01:57 2022
Timers Off: Mon Nov  7 17:01:58 2022

Wall Time:        0.59 seconds

                                                       Time (seconds)
Module                                       User      System        Wall        Calls

--------------------------------------------------------------------------------------

**************************************************************************************

Host: sophon

Timers On : Mon Nov  7 17:01:57 2022
Timers Off: Mon Nov  7 17:01:58 2022

Wall Time:        0.59 seconds

                                                       Time (seconds)
Module                                       User      System        Wall        Calls

--------------------------------------------------------------------------------------

**************************************************************************************

Host: sophon

Timers On : Mon Nov  7 17:01:57 2022
Timers Off: Mon Nov  7 17:01:58 2022

Wall Time:        0.59 seconds

                                                       Time (seconds)
Module                                       User      System        Wall        Calls

--------------------------------------------------------------------------------------

**************************************************************************************

Host: sophon

Timers On : Mon Nov  7 17:01:57 2022
Timers Off: Mon Nov  7 17:01:58 2022

Wall Time:        0.59 seconds

                                                       Time (seconds)
Module                                       User      System        Wall        Calls

--------------------------------------------------------------------------------------

**************************************************************************************

Host: sophon

Timers On : Mon Nov  7 17:01:57 2022
Timers Off: Mon Nov  7 17:01:58 2022

Wall Time:        0.61 seconds

                                                       Time (seconds)
Module                                       User      System        Wall        Calls

--------------------------------------------------------------------------------------

**************************************************************************************

Host: sophon

Timers On : Mon Nov  7 17:01:57 2022
Timers Off: Mon Nov  7 17:01:58 2022

Wall Time:        0.62 seconds

                                                       Time (seconds)
Module                                       User      System        Wall        Calls

--------------------------------------------------------------------------------------

**************************************************************************************

Host: sophon

Timers On : Mon Nov  7 17:18:35 2022
Timers Off: Mon Nov  7 17:18:35 2022

Wall Time:        0.36 seconds

                                                       Time (seconds)
Module                                       User      System        Wall        Calls

--------------------------------------------------------------------------------------

**************************************************************************************

Host: sophon

Timers On : Mon Nov  7 17:18:35 2022
Timers Off: Mon Nov  7 17:18:35 2022

Wall Time:        0.36 seconds

                                                       Time (seconds)
Module                                       User      System        Wall        Calls

--------------------------------------------------------------------------------------

**************************************************************************************




Host: sophon
Host: sophon

Host: sophon


Timers On : Mon Nov  7 17:18:57 2022
Timers On : Mon Nov  7 17:18:57 2022
Timers On : Mon Nov  7 17:18:57 2022
Timers Off: Mon Nov  7 17:18:58 2022
Timers Off: Mon Nov  7 17:18:58 2022
Timers Off: Mon Nov  7 17:18:58 2022

Wall Time:        0.58 seconds


Wall Time:        0.58 seconds


Wall Time:        0.58 seconds

                                                       Time (seconds)
                                                       Time (seconds)
                                                       Time (seconds)
Module                                       User      System        Wall        Calls
Module                                       User      System        Wall        Calls
Module                                       User      System        Wall        Calls

--------------------------------------------------------------------------------------

--------------------------------------------------------------------------------------

--------------------------------------------------------------------------------------

**************************************************************************************

**************************************************************************************

**************************************************************************************
Host: sophon

Timers On : Mon Nov  7 17:18:57 2022
Timers Off: Mon Nov  7 17:18:58 2022

Wall Time:        0.58 seconds

                                                       Time (seconds)
Module                                       User      System        Wall        Calls

--------------------------------------------------------------------------------------

**************************************************************************************

Host: sophon

Timers On : Mon Nov  7 17:18:57 2022
Timers Off: Mon Nov  7 17:18:58 2022

Wall Time:        0.58 seconds

                                                       Time (seconds)
Module                                       User      System        Wall        Calls

--------------------------------------------------------------------------------------

**************************************************************************************

Host: sophon

Timers On : Mon Nov  7 17:18:57 2022
Timers Off: Mon Nov  7 17:18:58 2022

Wall Time:        0.59 seconds

                                                       Time (seconds)
Module                                       User      System        Wall        Calls

--------------------------------------------------------------------------------------

**************************************************************************************

Host: sophon

Timers On : Mon Nov  7 17:18:57 2022
Timers Off: Mon Nov  7 17:18:58 2022

Wall Time:        0.59 seconds

                                                       Time (seconds)
Module                                       User      System        Wall        Calls

--------------------------------------------------------------------------------------

**************************************************************************************

Host: sophon

Timers On : Mon Nov  7 17:18:57 2022
Timers Off: Mon Nov  7 17:18:58 2022

Wall Time:        0.59 seconds

                                                       Time (seconds)
Module                                       User      System        Wall        Calls

--------------------------------------------------------------------------------------

**************************************************************************************

Host: sophon

Timers On : Mon Nov  7 17:18:57 2022
Timers Off: Mon Nov  7 17:18:58 2022

Wall Time:        0.59 seconds

                                                       Time (seconds)
Module                                       User      System        Wall        Calls

--------------------------------------------------------------------------------------

**************************************************************************************

Host: sophon

Timers On : Mon Nov  7 17:18:57 2022
Timers Off: Mon Nov  7 17:18:58 2022

Wall Time:        0.60 seconds

                                                       Time (seconds)
Module                                       User      System        Wall        Calls

--------------------------------------------------------------------------------------

**************************************************************************************

Host: sophon

Timers On : Mon Nov  7 17:22:01 2022
Timers Off: Mon Nov  7 17:22:01 2022

Wall Time:        0.36 seconds

                                                       Time (seconds)
Module                                       User      System        Wall        Calls

--------------------------------------------------------------------------------------

**************************************************************************************

Host: sophon

Timers On : Mon Nov  7 17:22:01 2022
Timers Off: Mon Nov  7 17:22:01 2022

Wall Time:        0.36 seconds

                                                       Time (seconds)
Module                                       User      System        Wall        Calls

--------------------------------------------------------------------------------------

**************************************************************************************

Host: sophon

Timers On : Mon Nov  7 17:22:23 2022
Timers Off: Mon Nov  7 17:22:24 2022

Wall Time:        0.55 seconds

                                                       Time (seconds)
Module                                       User      System        Wall        Calls

--------------------------------------------------------------------------------------

**************************************************************************************

Host: sophon

Timers On : Mon Nov  7 17:22:23 2022
Timers Off: Mon Nov  7 17:22:24 2022

Wall Time:        0.55 seconds

                                                       Time (seconds)
Module                                       User      System        Wall        Calls

--------------------------------------------------------------------------------------

**************************************************************************************

Host: sophon

Timers On : Mon Nov  7 17:22:23 2022
Timers Off: Mon Nov  7 17:22:24 2022

Wall Time:        0.58 seconds

                                                       Time (seconds)
Module                                       User      System        Wall        Calls

--------------------------------------------------------------------------------------

**************************************************************************************

Host: sophon

Timers On : Mon Nov  7 17:22:23 2022
Timers Off: Mon Nov  7 17:22:24 2022

Wall Time:        0.58 seconds

                                                       Time (seconds)
Module                                       User      System        Wall        Calls

--------------------------------------------------------------------------------------

**************************************************************************************

Host: sophon

Timers On : Mon Nov  7 17:22:23 2022
Timers Off: Mon Nov  7 17:22:24 2022

Wall Time:        0.59 seconds

                                                       Time (seconds)
Module                                       User      System        Wall        Calls

--------------------------------------------------------------------------------------

**************************************************************************************

Host: sophon

Timers On : Mon Nov  7 17:22:23 2022
Timers Off: Mon Nov  7 17:22:24 2022

Wall Time:        0.59 seconds

                                                       Time (seconds)
Module                                       User      System        Wall        Calls

--------------------------------------------------------------------------------------

**************************************************************************************

Host: sophon

Timers On : Mon Nov  7 17:22:23 2022
Timers Off: Mon Nov  7 17:22:24 2022

Wall Time:        0.59 seconds

                                                       Time (seconds)
Module                                       User      System        Wall        Calls

--------------------------------------------------------------------------------------

**************************************************************************************

Host: sophon

Timers On : Mon Nov  7 17:22:23 2022
Timers Off: Mon Nov  7 17:22:24 2022

Wall Time:        0.59 seconds

                                                       Time (seconds)
Module                                       User      System        Wall        Calls

--------------------------------------------------------------------------------------

**************************************************************************************

Host: sophon

Timers On : Mon Nov  7 17:22:23 2022
Timers Off: Mon Nov  7 17:22:24 2022

Wall Time:        0.60 seconds

                                                       Time (seconds)
Module                                       User      System        Wall        Calls

--------------------------------------------------------------------------------------

**************************************************************************************

Host: sophon

Timers On : Mon Nov  7 17:22:23 2022
Timers Off: Mon Nov  7 17:22:24 2022

Wall Time:        0.60 seconds

                                                       Time (seconds)
Module                                       User      System        Wall        Calls

--------------------------------------------------------------------------------------

**************************************************************************************


Host: sophon
Host: sophon


Timers On : Mon Nov  7 17:35:52 2022
Timers On : Mon Nov  7 17:35:52 2022
Timers Off: Mon Nov  7 17:35:52 2022
Timers Off: Mon Nov  7 17:35:52 2022

Wall Time:        0.36 seconds


Wall Time:        0.36 seconds

                                                       Time (seconds)
                                                       Time (seconds)
Module                                       User      System        Wall        Calls
Module                                       User      System        Wall        Calls

--------------------------------------------------------------------------------------

--------------------------------------------------------------------------------------

**************************************************************************************

**************************************************************************************

Host: sophon

Timers On : Mon Nov  7 17:36:14 2022
Timers Off: Mon Nov  7 17:36:15 2022

Wall Time:        0.57 seconds

                                                       Time (seconds)
Module                                       User      System        Wall        Calls

--------------------------------------------------------------------------------------

**************************************************************************************

Host: sophon

Timers On : Mon Nov  7 17:36:14 2022
Timers Off: Mon Nov  7 17:36:15 2022

Wall Time:        0.57 seconds

                                                       Time (seconds)
Module                                       User      System        Wall        Calls

--------------------------------------------------------------------------------------

**************************************************************************************

Host: sophon

Timers On : Mon Nov  7 17:36:14 2022
Timers Off: Mon Nov  7 17:36:15 2022

Wall Time:        0.58 seconds

                                                       Time (seconds)
Module                                       User      System        Wall        Calls

--------------------------------------------------------------------------------------

**************************************************************************************

Host: sophon

Timers On : Mon Nov  7 17:36:14 2022
Timers Off: Mon Nov  7 17:36:15 2022

Wall Time:        0.59 seconds

                                                       Time (seconds)
Module                                       User      System        Wall        Calls

--------------------------------------------------------------------------------------

**************************************************************************************

Host: sophon

Timers On : Mon Nov  7 17:36:14 2022
Timers Off: Mon Nov  7 17:36:15 2022

Wall Time:        0.59 seconds

                                                       Time (seconds)
Module                                       User      System        Wall        Calls

--------------------------------------------------------------------------------------

**************************************************************************************

Host: sophon

Timers On : Mon Nov  7 17:36:14 2022
Timers Off: Mon Nov  7 17:36:15 2022

Wall Time:        0.59 seconds

                                                       Time (seconds)
Module                                       User      System        Wall        Calls

--------------------------------------------------------------------------------------

**************************************************************************************

Host: sophon

Timers On : Mon Nov  7 17:36:14 2022
Timers Off: Mon Nov  7 17:36:15 2022

Wall Time:        0.60 seconds

                                                       Time (seconds)
Module                                       User      System        Wall        Calls

--------------------------------------------------------------------------------------

**************************************************************************************

Host: sophon

Timers On : Mon Nov  7 17:36:14 2022
Timers Off: Mon Nov  7 17:36:15 2022

Wall Time:        0.61 seconds

                                                       Time (seconds)
Module                                       User      System        Wall        Calls

--------------------------------------------------------------------------------------

**************************************************************************************

Host: sophon

Timers On : Mon Nov  7 17:36:14 2022
Timers Off: Mon Nov  7 17:36:15 2022

Wall Time:        0.61 seconds

                                                       Time (seconds)
Module                                       User      System        Wall        Calls

--------------------------------------------------------------------------------------

**************************************************************************************

Host: sophon

Timers On : Mon Nov  7 17:36:14 2022
Timers Off: Mon Nov  7 17:36:15 2022

Wall Time:        0.64 seconds

                                                       Time (seconds)
Module                                       User      System        Wall        Calls

--------------------------------------------------------------------------------------

[...]
Timers Off: Tue Nov  8 07:47:46 2022

Wall Time:        0.58 seconds

                                                       Time (seconds)
Module                                       User      System        Wall        Calls

--------------------------------------------------------------------------------------

**************************************************************************************


Host: sophon
Host: sophon



Host: sophon

Timers On : Tue Nov  8 07:47:46 2022
Timers On : Tue Nov  8 07:47:46 2022
Timers Off: Tue Nov  8 07:47:46 2022
Timers On : Tue Nov  8 07:47:46 2022
Timers Off: Tue Nov  8 07:47:46 2022

Wall Time:        0.59 seconds

Timers Off: Tue Nov  8 07:47:46 2022

Wall Time:        0.59 seconds

                                                       Time (seconds)
                                                       Time (seconds)

Wall Time:        0.59 seconds

Module                                       User      System        Wall        Calls
Module                                       User      System        Wall        Calls
                                                       Time (seconds)

--------------------------------------------------------------------------------------

--------------------------------------------------------------------------------------
Module                                       User      System        Wall        Calls

**************************************************************************************

--------------------------------------------------------------------------------------

**************************************************************************************

**************************************************************************************

Host: sophon

Timers On : Tue Nov  8 07:47:46 2022
Timers Off: Tue Nov  8 07:47:46 2022

Wall Time:        0.59 seconds

                                                       Time (seconds)
Module                                       User      System        Wall        Calls

--------------------------------------------------------------------------------------

**************************************************************************************

Host: sophon

Timers On : Tue Nov  8 07:47:46 2022
Timers Off: Tue Nov  8 07:47:46 2022

Wall Time:        0.59 seconds

                                                       Time (seconds)
Module                                       User      System        Wall        Calls

--------------------------------------------------------------------------------------

**************************************************************************************

Host: sophon

Timers On : Tue Nov  8 07:47:46 2022
Timers Off: Tue Nov  8 07:47:46 2022

Wall Time:        0.59 seconds

                                                       Time (seconds)
Module                                       User      System        Wall        Calls

--------------------------------------------------------------------------------------

**************************************************************************************

Host: sophon

Timers On : Tue Nov  8 07:47:46 2022
Timers Off: Tue Nov  8 07:47:46 2022

Wall Time:        0.60 seconds

                                                       Time (seconds)
Module                                       User      System        Wall        Calls

--------------------------------------------------------------------------------------

**************************************************************************************

Host: sophon

Timers On : Tue Nov  8 08:13:14 2022
Timers Off: Tue Nov  8 08:13:15 2022

Wall Time:        0.36 seconds

                                                       Time (seconds)
Module                                       User      System        Wall        Calls

--------------------------------------------------------------------------------------

**************************************************************************************

Host: sophon

Timers On : Tue Nov  8 08:13:14 2022
Timers Off: Tue Nov  8 08:13:15 2022

Wall Time:        0.36 seconds

                                                       Time (seconds)
Module                                       User      System        Wall        Calls

--------------------------------------------------------------------------------------

**************************************************************************************

Host: sophon

Timers On : Tue Nov  8 08:13:37 2022
Timers Off: Tue Nov  8 08:13:37 2022

Wall Time:        0.56 seconds

                                                       Time (seconds)
Module                                       User      System        Wall        Calls

--------------------------------------------------------------------------------------

**************************************************************************************

Host: sophon

Timers On : Tue Nov  8 08:13:37 2022
Timers Off: Tue Nov  8 08:13:37 2022

Wall Time:        0.56 seconds

                                                       Time (seconds)
Module                                       User      System        Wall        Calls

--------------------------------------------------------------------------------------

**************************************************************************************



Host: sophon
Host: sophon
Host: sophon



Timers On : Tue Nov  8 08:13:37 2022
Timers On : Tue Nov  8 08:13:37 2022
Timers On : Tue Nov  8 08:13:37 2022
Timers Off: Tue Nov  8 08:13:37 2022
Timers Off: Tue Nov  8 08:13:37 2022
Timers Off: Tue Nov  8 08:13:37 2022

Wall Time:        0.57 seconds


Wall Time:        0.57 seconds


Wall Time:        0.57 seconds

                                                       Time (seconds)
                                                       Time (seconds)
                                                       Time (seconds)
Module                                       User      System        Wall        Calls
Module                                       User      System        Wall        Calls
Module                                       User      System        Wall        Calls

--------------------------------------------------------------------------------------

--------------------------------------------------------------------------------------

--------------------------------------------------------------------------------------

**************************************************************************************

**************************************************************************************

**************************************************************************************

Host: sophon

Timers On : Tue Nov  8 08:13:37 2022
Timers Off: Tue Nov  8 08:13:37 2022

Wall Time:        0.59 seconds

                                                       Time (seconds)
Module                                       User      System        Wall        Calls

--------------------------------------------------------------------------------------

**************************************************************************************

Host: sophon

Timers On : Tue Nov  8 08:13:37 2022
Timers Off: Tue Nov  8 08:13:37 2022

Wall Time:        0.59 seconds

                                                       Time (seconds)
Module                                       User      System        Wall        Calls

--------------------------------------------------------------------------------------

**************************************************************************************

Host: sophon

Timers On : Tue Nov  8 08:13:37 2022
Timers Off: Tue Nov  8 08:13:37 2022

Wall Time:        0.59 seconds

                                                       Time (seconds)
Module                                       User      System        Wall        Calls

--------------------------------------------------------------------------------------

**************************************************************************************

Host: sophon

Timers On : Tue Nov  8 08:13:37 2022
Timers Off: Tue Nov  8 08:13:37 2022

Wall Time:        0.60 seconds

                                                       Time (seconds)
Module                                       User      System        Wall        Calls

--------------------------------------------------------------------------------------

**************************************************************************************

Host: sophon

Timers On : Tue Nov  8 08:13:37 2022
Timers Off: Tue Nov  8 08:13:37 2022

Wall Time:        0.62 seconds

                                                       Time (seconds)
Module                                       User      System        Wall        Calls

--------------------------------------------------------------------------------------

**************************************************************************************

Host: sophon

Timers On : Tue Nov  8 16:55:38 2022
Timers Off: Tue Nov  8 16:55:39 2022

Wall Time:        0.36 seconds

                                                       Time (seconds)
Module                                       User      System        Wall        Calls

--------------------------------------------------------------------------------------

**************************************************************************************

Host: sophon

Timers On : Tue Nov  8 16:55:38 2022
Timers Off: Tue Nov  8 16:55:39 2022

Wall Time:        0.36 seconds

                                                       Time (seconds)
Module                                       User      System        Wall        Calls

--------------------------------------------------------------------------------------

**************************************************************************************

Host: sophon

Timers On : Tue Nov  8 16:56:01 2022
Timers Off: Tue Nov  8 16:56:02 2022

Wall Time:        0.58 seconds

                                                       Time (seconds)
Module                                       User      System        Wall        Calls

--------------------------------------------------------------------------------------

**************************************************************************************

Host: sophon

Timers On : Tue Nov  8 16:56:01 2022
Timers Off: Tue Nov  8 16:56:02 2022

Wall Time:        0.58 seconds

                                                       Time (seconds)
Module                                       User      System        Wall        Calls

--------------------------------------------------------------------------------------

**************************************************************************************

Host: sophon



Host: sophon
Host: sophon
Timers On : Tue Nov  8 16:56:01 2022


Timers Off: Tue Nov  8 16:56:02 2022

Wall Time:        0.58 seconds

Timers On : Tue Nov  8 16:56:01 2022
Timers On : Tue Nov  8 16:56:01 2022
                                                       Time (seconds)
Module                                       User      System        Wall        Calls
Timers Off: Tue Nov  8 16:56:02 2022
Timers Off: Tue Nov  8 16:56:02 2022

--------------------------------------------------------------------------------------

Wall Time:        0.58 seconds


Wall Time:        0.58 seconds


**************************************************************************************
                                                       Time (seconds)
                                                       Time (seconds)
Module                                       User      System        Wall        Calls
Module                                       User      System        Wall        Calls

--------------------------------------------------------------------------------------

--------------------------------------------------------------------------------------

**************************************************************************************

**************************************************************************************

Host: sophon

Timers On : Tue Nov  8 16:56:01 2022
Timers Off: Tue Nov  8 16:56:02 2022

Wall Time:        0.58 seconds

                                                       Time (seconds)
Module                                       User      System        Wall        Calls

--------------------------------------------------------------------------------------

**************************************************************************************

Host: sophon

Timers On : Tue Nov  8 16:56:01 2022
Timers Off: Tue Nov  8 16:56:02 2022

Wall Time:        0.58 seconds

                                                       Time (seconds)
Module                                       User      System        Wall        Calls

--------------------------------------------------------------------------------------

**************************************************************************************

Host: sophon

Timers On : Tue Nov  8 16:56:01 2022
Timers Off: Tue Nov  8 16:56:02 2022

Wall Time:        0.60 seconds

                                                       Time (seconds)
Module                                       User      System        Wall        Calls

--------------------------------------------------------------------------------------

**************************************************************************************

Host: sophon

Timers On : Tue Nov  8 16:56:01 2022
Timers Off: Tue Nov  8 16:56:02 2022

Wall Time:        0.62 seconds

                                                       Time (seconds)
Module                                       User      System        Wall        Calls

--------------------------------------------------------------------------------------

**************************************************************************************

Host: sophon

Timers On : Tue Nov  8 16:56:01 2022
Timers Off: Tue Nov  8 16:56:02 2022

Wall Time:        0.61 seconds

                                                       Time (seconds)
Module                                       User      System        Wall        Calls

--------------------------------------------------------------------------------------

**************************************************************************************

Host: sophon

Timers On : Tue Nov  8 17:40:23 2022
Timers Off: Tue Nov  8 17:40:24 2022

Wall Time:        0.36 seconds

                                                       Time (seconds)
Module                                       User      System        Wall        Calls

--------------------------------------------------------------------------------------

**************************************************************************************

Host: sophon

Timers On : Tue Nov  8 17:40:23 2022
Timers Off: Tue Nov  8 17:40:24 2022

Wall Time:        0.36 seconds

                                                       Time (seconds)
Module                                       User      System        Wall        Calls

--------------------------------------------------------------------------------------

**************************************************************************************

Host: sophon

Timers On : Tue Nov  8 17:40:46 2022
Timers Off: Tue Nov  8 17:40:46 2022

Wall Time:        0.56 seconds

                                                       Time (seconds)
Module                                       User      System        Wall        Calls

--------------------------------------------------------------------------------------

**************************************************************************************

Host: sophon

Timers On : Tue Nov  8 17:40:46 2022
Timers Off: Tue Nov  8 17:40:46 2022

Wall Time:        0.56 seconds

                                                       Time (seconds)
Module                                       User      System        Wall        Calls

--------------------------------------------------------------------------------------

**************************************************************************************

Host: sophon

Timers On : Tue Nov  8 17:40:46 2022
Timers Off: Tue Nov  8 17:40:46 2022

Wall Time:        0.58 seconds

                                                       Time (seconds)
Module                                       User      System        Wall        Calls

--------------------------------------------------------------------------------------

**************************************************************************************


Host: sophon
Host: sophon


Timers On : Tue Nov  8 17:40:46 2022
Timers On : Tue Nov  8 17:40:46 2022
Timers Off: Tue Nov  8 17:40:46 2022
Timers Off: Tue Nov  8 17:40:46 2022

Wall Time:        0.58 seconds


Wall Time:        0.58 seconds

                                                       Time (seconds)
                                                       Time (seconds)
Module                                       User      System        Wall        Calls
Module                                       User      System        Wall        Calls

--------------------------------------------------------------------------------------

--------------------------------------------------------------------------------------

**************************************************************************************

**************************************************************************************

Host: sophon

Timers On : Tue Nov  8 17:40:46 2022
Timers Off: Tue Nov  8 17:40:46 2022

Wall Time:        0.58 seconds

                                                       Time (seconds)
Module                                       User      System        Wall        Calls

--------------------------------------------------------------------------------------

**************************************************************************************

Host: sophon

Timers On : Tue Nov  8 17:40:46 2022
Timers Off: Tue Nov  8 17:40:46 2022

Wall Time:        0.59 seconds

                                                       Time (seconds)
Module                                       User      System        Wall        Calls

--------------------------------------------------------------------------------------

**************************************************************************************

Host: sophon

Timers On : Tue Nov  8 17:40:46 2022
Timers Off: Tue Nov  8 17:40:46 2022

Wall Time:        0.59 seconds

                                                       Time (seconds)
Module                                       User      System        Wall        Calls

--------------------------------------------------------------------------------------

**************************************************************************************

Host: sophon

Timers On : Tue Nov  8 17:40:46 2022
Timers Off: Tue Nov  8 17:40:46 2022

Wall Time:        0.60 seconds

                                                       Time (seconds)
Module                                       User      System        Wall        Calls

--------------------------------------------------------------------------------------

**************************************************************************************

Host: sophon

Timers On : Tue Nov  8 17:40:46 2022
Timers Off: Tue Nov  8 17:40:46 2022

Wall Time:        0.60 seconds

                                                       Time (seconds)
Module                                       User      System        Wall        Calls

--------------------------------------------------------------------------------------

**************************************************************************************
