6    
energy: -170.18662965282292 calculated by psi4
C       -0.2749924400   -1.0390173400   -0.9973483600
C       -0.4629397200    0.1336573900   -0.3063119800
H       -1.3012381900    0.8068630500   -0.5468034700
H        0.6368168900   -1.5268857800   -0.5576384700
C        0.3536041700    0.6269986800    0.7655576800
N        1.0429898800    1.0015134300    1.6397947000
