6    
energy: -170.17851202022794 calculated by psi4
C       -0.3679054300   -1.4590811000   -1.3853126100
C       -0.1506963500   -0.5940348400   -0.5641949700
H        0.0501167300    0.2040748400    0.1937909400
H       -0.5589088600   -2.2210897900   -2.1060054000
C        0.4067681200    1.6150190800    1.5317196100
N        0.6211051100    2.4544776700    2.3289532800
