6    
energy: -170.14534120533907 calculated by psi4
C       -0.1821117800   -1.1519975600   -1.0027467400
C       -0.5824886500   -0.0539816100   -0.5403523200
H       -1.3336564300    0.7035859400   -0.6284301300
H        0.6461858900   -1.8061547700   -0.7726709800
C        0.3850085400    1.0768741100    1.1184690100
N        1.0564300600    1.4858546100    1.9946849500
