6    
energy: -170.14534120527233 calculated by psi4
C       -0.1821955700   -1.1517082800   -1.0029800400
C       -0.5823954400   -0.0536460400   -0.5405422100
H       -1.3333590700    0.7041162100   -0.6286859100
H        0.6458943100   -1.8060956400   -0.7728107200
C        0.3850514300    1.0767888100    1.1185958900
N        1.0563785100    1.4854882700    1.9950152900
