6    
From optimize.out: Frame 1 / 1, Energy=    -170.1785506347
C       -0.3679054300   -1.4590811000   -1.3853126100
C       -0.1506963500   -0.5940348400   -0.5641949700
H        0.0501167300    0.2040748400    0.1937909400
H       -0.5589088600   -2.2210897900   -2.1060054000
C        0.4067681200    1.6150190800    1.5317196100
N        0.6211051100    2.4544776700    2.3289532800
6    

C       -0.3632824962   -1.4369497299   -1.3694572640
C       -0.1652455875   -0.5571004892   -0.5483333375
H       -0.0206940900    0.2752623048    0.1840475989
H       -0.4952153518   -2.2402180601   -2.0619054151
C        0.4028790684    1.5676365906    1.4938112866
N        0.6417541979    2.3909063148    2.3007106744
6    

C       -0.3590819701   -1.4152455300   -1.3534960965
C       -0.1812704236   -0.5208724344   -0.5324817594
H       -0.0938865126    0.3427384041    0.1710120816
H       -0.4288064551   -2.2551183245   -2.0149261802
C        0.3998086770    1.5204336670    1.4567640942
N        0.6631488463    2.3277722197    2.2719240966
6    

C       -0.3549620760   -1.3938242535   -1.3377077170
C       -0.1979841096   -0.4848326129   -0.5174809940
H       -0.1685905496    0.4067894815    0.1539122816
H       -0.3611246026   -2.2663334199   -1.9638450721
C        0.3975601311    1.4734352952    1.4205629134
N        0.6847297893    2.2646445823    2.2432775176
6    

C       -0.3471076918   -1.3520569049   -1.3065168705
C       -0.2333391804   -0.4136177482   -0.4900715806
H       -0.3215461269    0.5233272375    0.1078411531
H       -0.2229121359   -2.2761261392   -1.8499434578
C        0.3954928419    1.3800908342    1.3507350606
N        0.7284737176    2.1386039351    2.1865200111
6    

C       -0.3433963774   -1.3318015277   -1.2910838710
C       -0.2518870769   -0.3785753918   -0.4776961351
H       -0.3992582173    0.5752107215    0.0790654121
H       -0.1529919494   -2.2739853226   -1.7874092554
C        0.3956636137    1.3337652660    1.3171315919
N        0.7506478527    2.0757785401    2.1584792666
6    

C       -0.3420905241   -1.3128199445   -1.2749469664
C       -0.2715370416   -0.3443996239   -0.4660431184
H       -0.4763013911    0.6227639920    0.0461495211
H       -0.0812487544   -2.2658059224   -1.7218895754
C        0.3966360925    1.2876848436    1.2844239671
N        0.7730358851    2.0131400116    2.1307158743
6    

C       -0.3397349990   -1.2936375378   -1.2592642595
C       -0.2897945853   -0.3101781618   -0.4554667922
H       -0.5536484381    0.6649453963    0.0108562475
H       -0.0116437792   -2.2525011736   -1.6524616245
C        0.3977161762    1.2417991315    1.2519488049
N        0.7953163127    1.9503067728    2.1027200194
6    

C       -0.3370351015   -1.2747231376   -1.2435337723
C       -0.3081523365   -0.2764805714   -0.4452869277
H       -0.6297288796    0.7022647893   -0.0271290237
H        0.0564504257   -2.2335425355   -1.5799929948
C        0.3989090833    1.1961037238    1.2197070328
N        0.8174839167    1.8872832297    2.0744907742
6    

C       -0.3339623724   -1.2560785534   -1.2277139787
C       -0.3265586167   -0.2433158291   -0.4354835182
H       -0.7042407104    0.7346790873   -0.0675686105
H        0.1226517174   -2.2088761382   -1.5047829007
C        0.4002199947    1.1505941424    1.1876994943
N        0.8395335166    1.8240738602    2.0460272956
6    

C       -0.3304612348   -1.2376911317   -1.2117745809
C       -0.3449778393   -0.2106894384   -0.4260335743
H       -0.7768021326    0.7622485955   -0.1103296196
H        0.1864871342   -2.1785694371   -1.4270175230
C        0.4016543224    1.1052655968    1.1559269861
N        0.8614597001    1.7606834548    2.0173287867
6    

C       -0.3265882181   -1.2195866233   -1.1956259282
C       -0.3633219818   -0.1786032574   -0.4169062235
H       -0.8474435508    0.7846720630   -0.1547073938
H        0.2479555879   -2.1422935721   -1.3475220418
C        0.4032160516    1.0601144677    1.1243900260
N        0.8832584821    1.6971156331    1.9883947296
6    

C       -0.3223490942   -1.2017676192   -1.1792046085
C       -0.3815307999   -0.1470536688   -0.4080676605
H       -0.9160361501    0.8018381547   -0.2002156682
H        0.3068737911   -2.0999382347   -1.2668799399
C        0.4049098771    1.0151364817    1.0930892176
N        0.9049251678    1.6333746681    1.9592245209
6    

C       -0.3177194645   -1.1842200405   -1.1624622244
C       -0.3995613235   -0.1160315772   -0.3994840722
H       -0.9823505607    0.8137665097   -0.2465121856
H        0.3629450053   -2.0515462382   -1.1855156846
C        0.4067408714    0.9703269305    1.0620251442
N        0.9264546847    1.5694652685    1.9298175771
6    

C       -0.3126850435   -1.1669292394   -1.1453441664
C       -0.4173686359   -0.0855219700   -0.3911212166
H       -1.0462049082    0.8204691544   -0.2932004543
H        0.4159281540   -1.9971592693   -1.1039146190
C        0.4087140200    0.9256810762    1.0311982971
N        0.9478420473    1.5053921719    1.9001734071
6    

C       -0.3073994736   -1.1500380656   -1.1276385475
C       -0.4352308519   -0.0557447476   -0.3826994827
H       -1.1072204907    0.8221664308   -0.3400166256
H        0.4658762923   -1.9366349202   -1.0228320902
C        0.4108342521    0.8811941257    1.0006090807
N        0.9690823264    1.4411601715    1.8702916063
6    

C       -0.3027234280   -1.1318845836   -1.1071329305
C       -0.4467842670   -0.0253179533   -0.3701675933
H       -1.1549938035    0.8236540718   -0.3791131962
H        0.5080545321   -1.8730606804   -0.9434741595
C        0.4057400513    0.8368042083    0.9635569676
N        0.9863653905    1.3720790026    1.8339675460
6    

C       -0.2929092345   -1.0954512328   -1.0638423891
C       -0.4643647612    0.0347007613   -0.3418585262
H       -1.2342850635    0.8186273916   -0.4496930080
H        0.5789673041   -1.7356551656   -0.7897549057
C        0.3902784180    0.7499077694    0.8864493770
N        1.0174046544    1.2304866835    1.7561814724
6    

C       -0.2878932374   -1.0772957820   -1.0411479920
C       -0.4703195734    0.0642218143   -0.3259617330
H       -1.2658339875    0.8128470999   -0.4806927874
H        0.6079138650   -1.6629235755   -0.7162212877
C        0.3798841105    0.7077557445    0.8466990058
N        1.0310565609    1.1581819770    1.7147295079
6    

C       -0.2830644158   -1.0594243212   -1.0176087399
C       -0.4744675466    0.0932378587   -0.3086602869
H       -1.2920647087    0.8053386521   -0.5085397859
H        0.6330024255   -1.5879963701   -0.6457103399
C        0.3676754869    0.6667082068    0.8063765340
N        1.0434429176    1.0850943227    1.6714700254
6    

C       -0.2749924500   -1.0390173600   -0.9973483900
C       -0.4629397000    0.1336573700   -0.3063119800
H       -1.3012381800    0.8068630400   -0.5468034900
H        0.6368168800   -1.5268858000   -0.5576384900
C        0.3536041800    0.6269986900    0.7655577000
N        1.0429898500    1.0015134800    1.6397947500
